iupac,smiles,expt,calc,CANONICAL_SMILES,MOLECULAR_FORMULA,IUPAC_NAME,INCHI,SELFIES
"(Z)-1,2-dichloroethylene",C(=C\Cl)\Cl,-1.17,1.156,<smiles>ClC=CCl,<formula>C2H2Cl2,"<iupac>1,2-dichloroethene",<inchi>InChI=1S/C2H2Cl2/c3-1-2-4/h1-2H,<selfies>[Cl][C][=C][Cl]
hexan-2-one,CCCCC(=O)C,-3.28,-3.006,<smiles>CCCCC(C)=O,<formula>C6H12O,<iupac>hexan-2-one,"<inchi>InChI=1S/C6H12O/c1-3-4-5-6(2)7/h3-5H2,1-2H3",<selfies>[C][C][C][C][C][Branch1][C][C][=O]
"1,2-dinitroxyethane",C(CO[N+](=O)[O-])O[N+](=O)[O-],-5.73,-6.227,<smiles>O=[N+]([O-])OCCO[N+](=O)[O-],<formula>C2H4N2O6,<iupac>2-nitrooxyethyl nitrate,<inchi>InChI=1S/C2H4N2O6/c5-3(6)9-1-2-10-4(7)8/h1-2H2,<selfies>[O][=N+1][Branch1][C][O-1][O][C][C][O][N+1][=Branch1][C][=O][O-1]
2-fluorophenol,c1ccc(c(c1)O)F,-5.29,-3.346,<smiles>Oc1ccccc1F,<formula>C6H5FO,<iupac>2-fluorophenol,"<inchi>InChI=1S/C6H5FO/c7-5-3-1-2-4-6(5)8/h1-4,8H",<selfies>[O][C][=C][C][=C][C][=C][Ring1][=Branch1][F]
pirimor,Cc1c(nc(nc1OC(=O)N(C)C)N(C)C)C,-9.41,-13.87,<smiles>Cc1nc(N(C)C)nc(OC(=O)N(C)C)c1C,<formula>C11H18N4O2,"<iupac>[2-(dimethylamino)-5,6-dimethylpyrimidin-4-yl] N,N-dimethylcarbamate",<inchi>InChI=1S/C11H18N4O2/c1-7-8(2)12-10(14(3)4)13-9(7)17-11(16)15(5)6/h1-6H3,<selfies>[C][C][=N][C][Branch1][=Branch1][N][Branch1][C][C][C][=N][C][Branch1][O][O][C][=Branch1][C][=O][N][Branch1][C][C][C][=C][Ring1][#C][C]
styrene,C=Cc1ccccc1,-1.24,-1.078,<smiles>C=Cc1ccccc1,<formula>C8H8,<iupac>styrene,"<inchi>InChI=1S/C8H8/c1-2-8-6-4-3-5-7-8/h2-7H,1H2",<selfies>[C][=C][C][=C][C][=C][C][=C][Ring1][=Branch1]
triethylphosphate,CCOP(=O)(OCC)OCC,-7.5,-10.251,<smiles>CCOP(=O)(OCC)OCC,<formula>C6H15O4P,<iupac>triethyl phosphate,"<inchi>InChI=1S/C6H15O4P/c1-4-8-11(7,9-5-2)10-6-3/h4-6H2,1-3H3",<selfies>[C][C][O][P][=Branch1][C][=O][Branch1][Ring2][O][C][C][O][C][C]
"2,2,2-trifluoroethanol",C(C(F)(F)F)O,-4.31,-3.809,<smiles>OCC(F)(F)F,<formula>C2H3F3O,"<iupac>2,2,2-trifluoroethanol","<inchi>InChI=1S/C2H3F3O/c3-2(4,5)1-6/h6H,1H2",<selfies>[O][C][C][Branch1][C][F][Branch1][C][F][F]
1-butoxy-2-propanol,CCCCOC[C@H](C)O,-5.73,-3.891,<smiles>CCCCOCC(C)O,<formula>C7H16O2,<iupac>1-butoxypropan-2-ol,"<inchi>InChI=1S/C7H16O2/c1-3-4-5-9-6-7(2)8/h7-8H,3-6H2,1-2H3",<selfies>[C][C][C][C][O][C][C][Branch1][C][C][O]
propan-1-ol,CCCO,-4.85,-3.33,<smiles>CCCO,<formula>C3H8O,<iupac>propan-1-ol,"<inchi>InChI=1S/C3H8O/c1-2-3-4/h4H,2-3H2,1H3",<selfies>[C][C][C][O]
o-xylene,Cc1ccccc1C,-0.9,-0.851,<smiles>Cc1ccccc1C,<formula>C8H10,"<iupac>1,2-xylene","<inchi>InChI=1S/C8H10/c1-7-5-3-4-6-8(7)2/h3-6H,1-2H3",<selfies>[C][C][=C][C][=C][C][=C][Ring1][=Branch1][C]
neopentane,CC(C)(C)C,2.51,2.506,<smiles>CC(C)(C)C,<formula>C5H12,"<iupac>2,2-dimethylpropane","<inchi>InChI=1S/C5H12/c1-5(2,3)4/h1-4H3",<selfies>[C][C][Branch1][C][C][Branch1][C][C][C]
pent-1-yne,CCCC#C,0.01,0.47,<smiles>C#CCCC,<formula>C5H8,<iupac>pent-1-yne,"<inchi>InChI=1S/C5H8/c1-3-5-4-2/h1H,4-5H2,2H3",<selfies>[C][#C][C][C][C]
phthalimide,c1ccc2c(c1)C(=O)NC2=O,-9.61,-11.825,<smiles>O=C1NC(=O)c2ccccc21,<formula>C8H5NO2,"<iupac>isoindole-1,3-dione","<inchi>InChI=1S/C8H5NO2/c10-7-5-3-1-2-4-6(5)8(11)9-7/h1-4H,(H,9,10,11)",<selfies>[O][=C][N][C][=Branch1][C][=O][C][=C][C][=C][C][=C][Ring1][=Branch1][Ring1][#Branch2]
1-iodobutane,CCCCI,-0.25,-0.223,<smiles>CCCCI,<formula>C4H9I,<iupac>1-iodobutane,"<inchi>InChI=1S/C4H9I/c1-2-3-4-5/h2-4H2,1H3",<selfies>[C][C][C][C][I]
p-cresol,Cc1ccc(cc1)O,-6.13,-5.579,<smiles>Cc1ccc(O)cc1,<formula>C7H8O,<iupac>4-methylphenol,"<inchi>InChI=1S/C7H8O/c1-6-2-4-7(8)5-3-6/h2-5,8H,1H3",<selfies>[C][C][=C][C][=C][Branch1][C][O][C][=C][Ring1][#Branch1]
2-iodopropane,CC(C)I,-0.46,-0.492,<smiles>CC(C)I,<formula>C3H7I,<iupac>2-iodopropane,"<inchi>InChI=1S/C3H7I/c1-3(2)4/h3H,1-2H3",<selfies>[C][C][Branch1][C][C][I]
cyclopentene,C1CC=CC1,0.56,1.23,<smiles>C1=CCCC1,<formula>C5H8,<iupac>cyclopentene,"<inchi>InChI=1S/C5H8/c1-2-4-5-3-1/h1-2H,3-5H2",<selfies>[C][=C][C][C][C][Ring1][Branch1]
111-trifluoropropan-2-ol,C[C@H](C(F)(F)F)O,-4.2,-3.486,<smiles>CC(O)C(F)(F)F,<formula>C3H5F3O,"<iupac>1,1,1-trifluoropropan-2-ol","<inchi>InChI=1S/C3H5F3O/c1-2(7)3(4,5)6/h2,7H,1H3",<selfies>[C][C][Branch1][C][O][C][Branch1][C][F][Branch1][C][F][F]
propan-1-amine,CCCN,-4.39,-3.053,<smiles>CCCN,<formula>C3H9N,<iupac>propan-1-amine,"<inchi>InChI=1S/C3H9N/c1-2-3-4/h2-4H2,1H3",<selfies>[C][C][C][N]
2-nitrophenol,c1ccc(c(c1)[N+](=O)[O-])O,-4.58,-5.667,<smiles>O=[N+]([O-])c1ccccc1O,<formula>C6H5NO3,<iupac>2-nitrophenol,"<inchi>InChI=1S/C6H5NO3/c8-6-4-2-1-3-5(6)7(9)10/h1-4,8H",<selfies>[O][=N+1][Branch1][C][O-1][C][=C][C][=C][C][=C][Ring1][=Branch1][O]
1-methylnaphthalene,Cc1cccc2c1cccc2,-2.44,-3.212,<smiles>Cc1cccc2ccccc12,<formula>C11H10,<iupac>1-methylnaphthalene,"<inchi>InChI=1S/C11H10/c1-9-5-4-7-10-6-2-3-8-11(9)10/h2-8H,1H3",<selfies>[C][C][=C][C][=C][C][=C][C][=C][C][=C][Ring1][#Branch2][Ring1][=Branch1]
hexachlorobenzene,c1(c(c(c(c(c1Cl)Cl)Cl)Cl)Cl)Cl,-2.33,0.379,<smiles>Clc1c(Cl)c(Cl)c(Cl)c(Cl)c1Cl,<formula>C6Cl6,"<iupac>1,2,3,4,5,6-hexachlorobenzene",<inchi>InChI=1S/C6Cl6/c7-1-2(8)4(10)6(12)5(11)3(1)9,<selfies>[Cl][C][=C][Branch1][C][Cl][C][Branch1][C][Cl][=C][Branch1][C][Cl][C][Branch1][C][Cl][=C][Ring1][#Branch2][Cl]
oct-2-enal,CCCCC/C=C/C=O,-3.43,-2.706,<smiles>CCCCCC=CC=O,<formula>C8H14O,<iupac>oct-2-enal,"<inchi>InChI=1S/C8H14O/c1-2-3-4-5-6-7-8-9/h6-8H,2-5H2,1H3",<selfies>[C][C][C][C][C][C][=C][C][=O]
oct-1-yne,CCCCCCC#C,0.71,0.832,<smiles>C#CCCCCCC,<formula>C8H14,<iupac>oct-1-yne,"<inchi>InChI=1S/C8H14/c1-3-5-7-8-6-4-2/h1H,4-8H2,2H3",<selfies>[C][#C][C][C][C][C][C][C]
diazinon,CCOP(=S)(OCC)Oc1cc(nc(n1)C(C)C)C,-6.48,-10.753,<smiles>CCOP(=S)(OCC)Oc1cc(C)nc(C(C)C)n1,<formula>C12H21N2O3PS,<iupac>diethoxy-(6-methyl-2-propan-2-ylpyrimidin-4-yl)oxy-sulfanylidene-lambda5-phosphane,"<inchi>InChI=1S/C12H21N2O3PS/c1-6-15-18(19,16-7-2)17-11-8-10(5)13-12(14-11)9(3)4/h8-9H,6-7H2,1-5H3",<selfies>[C][C][O][P][=Branch1][C][=S][Branch1][Ring2][O][C][C][O][C][=C][C][Branch1][C][C][=N][C][Branch1][=Branch1][C][Branch1][C][C][C][=N][Ring1][#Branch2]
pyrrolidine,C1CCNC1,-5.48,-4.278,<smiles>C1CCNC1,<formula>C4H9N,<iupac>pyrrolidine,"<inchi>InChI=1S/C4H9N/c1-2-4-5-3-1/h5H,1-4H2",<selfies>[C][C][C][N][C][Ring1][Branch1]
4-hydroxybenzaldehyde,c1cc(ccc1C=O)O,-8.83,-10.05,<smiles>O=Cc1ccc(O)cc1,<formula>C7H6O2,<iupac>4-hydroxybenzaldehyde,"<inchi>InChI=1S/C7H6O2/c8-5-6-1-3-7(9)4-2-6/h1-5,9H",<selfies>[O][=C][C][=C][C][=C][Branch1][C][O][C][=C][Ring1][#Branch1]